 Q-Chem 4.2, Q-Chem, Inc., Pleasanton, CA (2014).
 Q-Chem 4.2.0 for Intel X86 EM64T Linux

User input:
--------------------------------------------------------------
$molecule
0 1
--
0 1
O       -1.06894        2.58476       -0.04887
H       -0.16971        2.43518        0.33714
H       -1.12297        1.94757       -0.80463
---
0 1
O        2.40989        2.65835       -0.41025
H        3.37713        2.77773       -0.23492
H        2.05593        3.57951       -0.48982
$end

$rem
BASIS           6-31G*
EXCHANGE        PBE
CORRELATION     PBE
EMBEDMAN        1
EMBED_THEORY    1
SCF_ALGORITHM   DIIS
incfock         0
CCMAN2          true
PURCAR          222
MAXSCF          100
symmetry        false
sym_ignore      true
cc_symmetry     false
$end

--------------------------------------------------------------

    8    -152.6503821536      1.67E-06  00000 Convergence criterion met
 Total energy in the final basis set = -152.6503821536
    7     -76.2349183433      9.05E-06  00000 Convergence criterion met
 Total energy in the final basis set = -76.2349183433
 CCSD total energy          = -76.55621745
 Total job time:  45.62s(wall), 45.60s(cpu)
        *  Thank you very much for using Q-Chem.  Have a nice day.  *

User input: 2 of 2

                  Welcome to Q-Chem
     A Quantum Leap Into The Future Of Chemistry

 Q-Chem 4.2, Q-Chem, Inc., Pleasanton, CA (2014).

 Y. Shao,  Z. Gan,  E. Epifanovsky,  A. T. B. Gilbert,  M. Wormit,
 J. Kussmann,  A. W. Lange,  A. Behn,  J. Deng,  X. Feng,  D. Ghosh,
 M. Goldey,  P. R. Horn,  L. D. Jacobson,  I. Kaliman,  R. Z. Khaliullin,
 T. Kus,  A. Landau,  J. Liu,  E. I. Proynov,  Y. M. Rhee,  R. M. Richard,
 M. A. Rohrdanz,  R. P. Steele,  E. J. Sundstrom,  H. L. Woodcock III,
 P. M. Zimmerman,  D. Zuev,  B. Albrecht,  E. Alguire,  B. Austin,
 G. J. O. Beran,  Y. A. Bernard,  E. Berquist,  K. Brandhorst,
 K. B. Bravaya,  S. T. Brown,  D. Casanova,  C.-M. Chang,  Y. Chen,
 S. H. Chien,  K. D. Closser,  D. L. Crittenden,  M. Diedenhofen,
 R. A. DiStasio Jr.,  H. Do,  A. D. Dutoi,  R. G. Edgar,  S. Fatehi,
 L. Fusti-Molnar,  A. Ghysels,  A. Golubeva-Zadorozhnaya,  J. Gomes,
 M. W. D. Hanson-Heine,  P. H. P. Harbach,  A. W. Hauser,  E. G. Hohenstein,
 Z. C. Holden,  T.-C. Jagau,  H. Ji,  B. Kaduk,  K. Khistyaev,  Jaehoon Kim,
 Jihan Kim,  R. A. King,  P. Klunzinger,  D. Kosenkov,  T. Kowalczyk,
 C. M. Krauter,  K. U. Lao,  A. Laurent,  K. V. Lawler,  S. V. Levchenko,
 C. Y. Lin,  F. Liu,  E. Livshits,  R. C. Lochan,  A. Luenser,  P. Manohar,
 S. F. Manzer,  S.-P. Mao,  N. Mardirossian,  A. V. Marenich,  S. A. Maurer,
 N. J. Mayhall,  C. M. Oana,  R. Olivares-Amaya,  D. P. O'Neill,
 J. A. Parkhill,  T. M. Perrine,  R. Peverati,  P. A. Pieniazek,  A. Prociuk,
 D. R. Rehn,  E. Rosta,  N. J. Russ,  N. Sergueev,  S. M. Sharada,
 S. Sharma,  D. W. Small,  A. Sodt,  T. Stein,  D. Stuck,  Y.-C. Su,
 A. J. W. Thom,  T. Tsuchimochi,  L. Vogt,  O. Vydrov,  T. Wang,
 M. A. Watson,  J. Wenzel,  A. White,  C. F. Williams,  V. Vanovschi,
 S. Yeganeh,  S. R. Yost,  Z.-Q. You,  I. Y. Zhang,  X. Zhang,  Y. Zhao,
 B. R. Brooks,  G. K. L. Chan,  D. M. Chipman,  C. J. Cramer,
 W. A. Goddard III,  M. S. Gordon,  W. J. Hehre,  A. Klamt,
 H. F. Schaefer III,  M. W. Schmidt,  C. D. Sherrill,  D. G. Truhlar,
 A. Warshel,  X. Xu,  A. Aspuru-Guzik,  R. Baer,  A. T. Bell,  N. A. Besley,
 J.-D. Chai,  A. Dreuw,  B. D. Dunietz,  T. R. Furlani,  S. R. Gwaltney,
 C.-P. Hsu,  Y. Jung,  J. Kong,  D. S. Lambrecht,  W. Liang,  C. Ochsenfeld,
 V. A. Rassolov,  L. V. Slipchenko,  J. E. Subotnik,  T. Van Voorhis,
 J. M. Herbert,  A. I. Krylov,  P. M. W. Gill,  M. Head-Gordon

 Contributors to earlier versions of Q-Chem not listed above:
 R. D. Adamson,  J. Baker,  E. F. C. Byrd,  A. K. Chakraborty,  C.-L. Cheng,
 H. Dachsel,  R. J. Doerksen,  G. Hawkins,  A. Heyden,  S. Hirata,
 G. Kedziora,  F. J. Keil,  C. Kelley,  P. P. Korambath,  W. Kurlancheek,
 A. M. Lee,  M. S. Lee,  D. Liotard,  I. Lotan,  P. E. Maslen,  N. Nair,
 D. Neuhauser,  R. Olson,  B. Peters,  J. Ritchie,  N. E. Schultz,
 N. Shenvi,  A. C. Simmonett,  K. S. Thanthiriwatte,  Q. Wu,  W. Zhang

 Q-Chem 4.2.0 for Intel X86 EM64T Linux

 Parts of Q-Chem use Armadillo 4.100.2 (Dirt Cruiser).
 http://arma.sourceforge.net/

 Q-Chem begins on Mon Jun  2 10:04:51 2014

Host:
0

     Scratch files written to /tmp/ben/qchem/qchem29885//
 May2714 |home|ben|opt|apps|qchem|bja_2|libmdc|qstr_info.C -1
 Using version located at /home/ben/opt/apps/qchem/bja_2/bin/qchem

Total Memory Limit in MB = 2000
Mega-Array Size in MB = 62
Finally everything over in PARseQInput

--------------------------------------------------------------
User input:
--------------------------------------------------------------

$molecule
0 1
--
0 1
O        2.40989        2.65835       -0.41025
H        3.37713        2.77773       -0.23492
H        2.05593        3.57951       -0.48982
--
0 1
O       -1.06894        2.58476       -0.04887
H       -0.16971        2.43518        0.33714
H       -1.12297        1.94757       -0.80463
$end

$rem
BASIS           6-31G*
EXCHANGE        HF
CORRELATION     CCSD(T)
SCF_ALGORITHM   DIIS
incfock         0
CCMAN2          true
MAXSCF          100
symmetry        false
sym_ignore      true
cc_symmetry     false
PURCAR          222
$end
--------------------------------------------------------------

             Standard Nuclear Orientation (Angstroms)
    I     Atom           X                Y                Z
 ----------------------------------------------------------------
    1      O       2.4098900000     2.6583500000    -0.4102500000
    2      H       3.3771300000     2.7777300000    -0.2349200000
    3      H       2.0559300000     3.5795100000    -0.4898200000
    4      O      -1.0689400000     2.5847600000    -0.0488700000
    5      H      -0.1697100000     2.4351800000     0.3371400000
    6      H      -1.1229700000     1.9475700000    -0.8046300000
 ----------------------------------------------------------------

   13    -152.0196199461      2.54E-09  00000 Convergence criterion met
 Total energy in the final basis set = -152.0196199461
 CCSD total energy          = -152.42035397
 CCSD(T) total energy       = -152.42449726

                    Orbital Energies (a.u.)
 --------------------------------------------------------------

 Alpha MOs
 -- Occupied --
-20.582 -20.555  -1.340  -1.314  -0.705  -0.677  -0.582  -0.554
 -0.511  -0.485

          Ground-State Mulliken Net Atomic Charges

     Atom                 Charge (a.u.)
  ----------------------------------------
      1 O                    -0.873751
      2 H                     0.439470
      3 H                     0.438906
      4 O                    -0.880777
      5 H                     0.443970
      6 H                     0.432182
  ----------------------------------------
  Sum of atomic charges =     0.000000

                    Cartesian Multipole Moments
 -----------------------------------------------------------------
    Charge (ESU x 10^10)
                 0.0000
    Dipole Moment (Debye)
         X       2.8644      Y       0.4826      Z      -0.5118
       Tot       2.9496
    Quadrupole Moments (Debye-Ang)
        XX      -7.2643     XY      13.0177     YY      -8.4752
        XZ       2.1193     YZ      -1.0885     ZZ     -12.6649

 Total job time:  73.07s(wall), 73.04s(cpu)
        *  Thank you very much for using Q-Chem.  Have a nice day.  *
